<?xml version="1.0"?>
<VTKFile type="UnstructuredGrid"  version="0.1"  >
<UnstructuredGrid>
<Piece  NumberOfPoints="15" NumberOfCells="16">
<Points>
<DataArray  type="Float64"  NumberOfComponents="3"  format="ascii">0 0 0  1 0 0  1 0.5 0  0.5 0.5 0  0.5 1 0  0 1 0  0.5 0 0  0.25 0.25 0  0 0.5 0  1 0.25 0  0.75 0.25 0  0.75 0.5 0  0.5 0.75 0  0.25 0.75 0  0.25 1 0  </DataArray>
</Points>
<Cells>
<DataArray  type="UInt32"  Name="connectivity"  format="ascii">3 7 10  0 6 7  1 6 10  6 7 10  2 9 10  1 9 10  2 10 11  3 10 11  4 12 13  3 12 13  4 13 14  5 13 14  3 7 13  5 8 13  0 7 8  7 8 13  </DataArray>
<DataArray  type="UInt32"  Name="offsets"  format="ascii">3 6 9 12 15 18 21 24 27 30 33 36 39 42 45 48 </DataArray>
<DataArray  type="UInt8"  Name="types"  format="ascii">5 5 5 5 5 5 5 5 5 5 5 5 5 5 5 5 </DataArray>
</Cells>
<PointData  Scalars="u"> 
<DataArray  type="Float64"  Name="u"  format="ascii">0.0000000000000000e+00  0.0000000000000000e+00  0.0000000000000000e+00  0.0000000000000000e+00  0.0000000000000000e+00  0.0000000000000000e+00  0.0000000000000000e+00  2.6444038708595158e-01  0.0000000000000000e+00  0.0000000000000000e+00  2.0405126653335962e-01  0.0000000000000000e+00  0.0000000000000000e+00  2.0405126653335962e-01  0.0000000000000000e+00  </DataArray> 
</PointData> 
</Piece>
</UnstructuredGrid>
</VTKFile>